file 5540762 1670494405                                         
version 3
run Validation1-0-20221208-11:12:50-47745
attr configname Validation1
attr datetime 20221208-11:12:50
attr datetimef 20221208-111250
attr experiment Validation1
attr inifile ../simulations/omnetpp.ini
attr iterationvars ""
attr iterationvarsd ""
attr iterationvarsf ""
attr measurement ""
attr network OpportunisticCellularNetwork
attr processid 47745
attr repetition 0
attr replication #0
attr resultdir results
attr runnumber 0
attr seedset 0
config **.source[*].rate 20
config **.population 4
config **.cellular[0].CQI 7
config **.cellular[1].CQI 8
config **.cellular[2].CQI 13
config **.cellular[3].CQI 14
config network OpportunisticCellularNetwork
config sim-time-limit 3s
config **.population 4
config **.antenna.stage 0
config **.antenna.timeslot "1 ms"
config **.antenna.queueDimension 0
config **.cellular[*].typeCQI false
config **.cellular[*].uniform_r 15
config num-rngs 3
config **.cellular[*].rng-0 0
config **.source[*].rng-0 1
config "** source[*].rng-1" 2

vector 0 OpportunisticCellularNetwork.cellular[0] userThroughput:vector ETV
attr "" ""
attr recordingmode vector
attr source userThroughputSignal
vector 1 OpportunisticCellularNetwork.cellular[1] userThroughput:vector ETV
attr "" ""
attr recordingmode vector
attr source userThroughputSignal
vector 2 OpportunisticCellularNetwork.cellular[2] userThroughput:vector ETV
attr "" ""
attr recordingmode vector
attr source userThroughputSignal
vector 3 OpportunisticCellularNetwork.cellular[3] userThroughput:vector ETV
attr "" ""
attr recordingmode vector
attr source userThroughputSignal
vector 4 OpportunisticCellularNetwork.antenna throughput:vector ETV
attr "" ""
attr recordingmode vector
attr source throughputSignal
vector 5 OpportunisticCellularNetwork.cellular[3] userResponseTime:vector ETV
attr "" ""
attr recordingmode vector
attr source userResponseTimeSignal
vector 6 OpportunisticCellularNetwork.cellular[2] userResponseTime:vector ETV
attr "" ""
attr recordingmode vector
attr source userResponseTimeSignal
vector 7 OpportunisticCellularNetwork.cellular[1] userResponseTime:vector ETV
attr "" ""
attr recordingmode vector
attr source userResponseTimeSignal
vector 8 OpportunisticCellularNetwork.cellular[0] userResponseTime:vector ETV
attr "" ""
attr recordingmode vector
attr source userResponseTimeSignal
5	2303 1257105 132 357739 0.000837706298 1.638867586683 32768 2.4016e-08 0.001265005293 16.482346413513 0.011166584429634
6	1259408 1257315 147 357759 0.000837706298 1.638867586683 32768 6.0872e-08 0.001273254464 16.529431042849 0.01121184261704
0	2516723 50166 2 654909 0 3 3001 0 10 10 100
1	2566889 55749 3 654910 0 3 3001 0 483 609640 145636186
2	2622638 56242 4 654911 0 3 3001 0 1193 2286073 1785678821
3	2678880 56233 5 654912 0 3 3001 0 1179 2275409 1769966475
4	2735113 86156 131 654822 0.000837706298 2.999759598572 3000 1272 2125 5171132 8955569754
5	2821269 1052138 357740 654842 1.638867586683 2.999759598572 27225 5.367e-09 0.001262974481 13.701412015269 0.0092794540763805
6	3873407 1052211 357760 654861 1.638867586683 2.999759598572 27226 8.385e-09 0.001284092111 13.713487112142 0.0092899559935213
7	4925618 615107 163 654867 0.000837706298 2.999759598572 15935 4.4070055e-05 2.203015962329 17518.624278612 25717.469178249
8	5540725 36 394 394 0.001843178248 0.001843178248 1 0.001816197957 0.001816197957 0.001816197957 3.298575019011e-06

