file 2128986 1670533835                                         
version 3
run Validation1-0-20221208-22:09:54-55868
attr configname Validation1
attr datetime 20221208-22:09:54
attr datetimef 20221208-220954
attr experiment Validation1
attr inifile ../simulations/omnetpp.ini
attr iterationvars ""
attr iterationvarsd ""
attr iterationvarsf ""
attr measurement ""
attr network OpportunisticCellularNetwork
attr processid 55868
attr repetition 0
attr replication #0
attr resultdir results
attr runnumber 0
attr seedset 0
config **.source[*].rate 4
config **.population 4
config **.cellular[0].CQI 7
config **.cellular[1].CQI 8
config **.cellular[2].CQI 13
config **.cellular[3].CQI 14
config network OpportunisticCellularNetwork
config sim-time-limit 3s
config **.population 4
config **.antenna.stage 0
config **.antenna.timeslot "1 ms"
config **.antenna.queueDimension 0
config **.cellular[*].typeCQI false
config **.cellular[*].uniform_r 15
config num-rngs 3
config **.cellular[*].rng-0 0
config **.source[*].rng-0 1
config "** source[*].rng-1" 2

vector 0 OpportunisticCellularNetwork.cellular[0] userThroughput:vector ETV
attr "" ""
attr recordingmode vector
attr source userThroughputSignal
vector 1 OpportunisticCellularNetwork.cellular[1] userThroughput:vector ETV
attr "" ""
attr recordingmode vector
attr source userThroughputSignal
vector 2 OpportunisticCellularNetwork.cellular[2] userThroughput:vector ETV
attr "" ""
attr recordingmode vector
attr source userThroughputSignal
vector 3 OpportunisticCellularNetwork.cellular[3] userThroughput:vector ETV
attr "" ""
attr recordingmode vector
attr source userThroughputSignal
vector 4 OpportunisticCellularNetwork.antenna throughput:vector ETV
attr "" ""
attr recordingmode vector
attr source throughputSignal
vector 5 OpportunisticCellularNetwork.cellular[3] userResponseTime:vector ETV
attr "" ""
attr recordingmode vector
attr source userResponseTimeSignal
vector 6 OpportunisticCellularNetwork.cellular[2] userResponseTime:vector ETV
attr "" ""
attr recordingmode vector
attr source userResponseTimeSignal
vector 7 OpportunisticCellularNetwork.cellular[0] userResponseTime:vector ETV
attr "" ""
attr recordingmode vector
attr source userResponseTimeSignal
vector 8 OpportunisticCellularNetwork.cellular[1] userResponseTime:vector ETV
attr "" ""
attr recordingmode vector
attr source userResponseTimeSignal
0	2302 54417 2 182974 0 3 3001 0 330 452866 75389182
1	56719 54517 3 182975 0 3 3001 0 328 458643 76229373
2	111236 54407 4 182976 0 3 3001 0 349 457445 77584265
3	165643 54460 5 182977 0 3 3001 0 292 452961 74448405
4	220103 81841 27 182948 0.000837706298 2.999759598572 3000 213 994 1821915 1136252677
5	301944 457312 28 182952 0.000837706298 2.999759598572 11997 4.93497e-07 0.001224173609 6.404848472543 0.0044160829698743
6	759256 455873 29 182956 0.000837706298 2.999759598572 11998 2.7397e-08 0.001268429416 5.771952306279 0.0038655042689753
7	1215129 457055 32 182964 0.000837706298 2.999759598572 11999 1.0507e-08 0.001262896916 6.363661436653 0.0044284757119902
8	1672184 456801 84 182960 0.001843178248 2.999759598572 11994 1.80094e-07 0.001180111853 6.039899761651 0.0040529174961818

